# vtk DataFile Version 3.0
#This file was generated by the deal.II library on 2023/9/22 at 12:04:57
ASCII
DATASET UNSTRUCTURED_GRID

POINTS 200 double
0 0 0
0.001 0 0
0.001 0 0
0.002 0 0
0.002 0 0
0.003 0 0
0.003 0 0
0.004 0 0
0.004 0 0
0.005 0 0
0.005 0 0
0.006 0 0
0.006 0 0
0.007 0 0
0.007 0 0
0.008 0 0
0.008 0 0
0.009 0 0
0.009 0 0
0.01 0 0
0.01 0 0
0.011 0 0
0.011 0 0
0.012 0 0
0.012 0 0
0.013 0 0
0.013 0 0
0.014 0 0
0.014 0 0
0.015 0 0
0.015 0 0
0.016 0 0
0.016 0 0
0.017 0 0
0.017 0 0
0.018 0 0
0.018 0 0
0.019 0 0
0.019 0 0
0.02 0 0
0.02 0 0
0.021 0 0
0.021 0 0
0.022 0 0
0.022 0 0
0.023 0 0
0.023 0 0
0.024 0 0
0.024 0 0
0.025 0 0
0.025 0 0
0.026 0 0
0.026 0 0
0.027 0 0
0.027 0 0
0.028 0 0
0.028 0 0
0.029 0 0
0.029 0 0
0.03 0 0
0.03 0 0
0.031 0 0
0.031 0 0
0.032 0 0
0.032 0 0
0.033 0 0
0.033 0 0
0.034 0 0
0.034 0 0
0.035 0 0
0.035 0 0
0.036 0 0
0.036 0 0
0.037 0 0
0.037 0 0
0.038 0 0
0.038 0 0
0.039 0 0
0.039 0 0
0.04 0 0
0.04 0 0
0.041 0 0
0.041 0 0
0.042 0 0
0.042 0 0
0.043 0 0
0.043 0 0
0.044 0 0
0.044 0 0
0.045 0 0
0.045 0 0
0.046 0 0
0.046 0 0
0.047 0 0
0.047 0 0
0.048 0 0
0.048 0 0
0.049 0 0
0.049 0 0
0.05 0 0
0.05 0 0
0.051 0 0
0.051 0 0
0.052 0 0
0.052 0 0
0.053 0 0
0.053 0 0
0.054 0 0
0.054 0 0
0.055 0 0
0.055 0 0
0.056 0 0
0.056 0 0
0.057 0 0
0.057 0 0
0.058 0 0
0.058 0 0
0.059 0 0
0.059 0 0
0.06 0 0
0.06 0 0
0.061 0 0
0.061 0 0
0.062 0 0
0.062 0 0
0.063 0 0
0.063 0 0
0.064 0 0
0.064 0 0
0.065 0 0
0.065 0 0
0.066 0 0
0.066 0 0
0.067 0 0
0.067 0 0
0.068 0 0
0.068 0 0
0.069 0 0
0.069 0 0
0.07 0 0
0.07 0 0
0.071 0 0
0.071 0 0
0.072 0 0
0.072 0 0
0.073 0 0
0.073 0 0
0.074 0 0
0.074 0 0
0.075 0 0
0.075 0 0
0.076 0 0
0.076 0 0
0.077 0 0
0.077 0 0
0.078 0 0
0.078 0 0
0.079 0 0
0.079 0 0
0.08 0 0
0.08 0 0
0.081 0 0
0.081 0 0
0.082 0 0
0.082 0 0
0.083 0 0
0.083 0 0
0.084 0 0
0.084 0 0
0.085 0 0
0.085 0 0
0.086 0 0
0.086 0 0
0.087 0 0
0.087 0 0
0.088 0 0
0.088 0 0
0.089 0 0
0.089 0 0
0.09 0 0
0.09 0 0
0.091 0 0
0.091 0 0
0.092 0 0
0.092 0 0
0.093 0 0
0.093 0 0
0.094 0 0
0.094 0 0
0.095 0 0
0.095 0 0
0.096 0 0
0.096 0 0
0.097 0 0
0.097 0 0
0.098 0 0
0.098 0 0
0.099 0 0
0.099 0 0
0.1 0 0

CELLS 100 300
2	0	1
2	2	3
2	4	5
2	6	7
2	8	9
2	10	11
2	12	13
2	14	15
2	16	17
2	18	19
2	20	21
2	22	23
2	24	25
2	26	27
2	28	29
2	30	31
2	32	33
2	34	35
2	36	37
2	38	39
2	40	41
2	42	43
2	44	45
2	46	47
2	48	49
2	50	51
2	52	53
2	54	55
2	56	57
2	58	59
2	60	61
2	62	63
2	64	65
2	66	67
2	68	69
2	70	71
2	72	73
2	74	75
2	76	77
2	78	79
2	80	81
2	82	83
2	84	85
2	86	87
2	88	89
2	90	91
2	92	93
2	94	95
2	96	97
2	98	99
2	100	101
2	102	103
2	104	105
2	106	107
2	108	109
2	110	111
2	112	113
2	114	115
2	116	117
2	118	119
2	120	121
2	122	123
2	124	125
2	126	127
2	128	129
2	130	131
2	132	133
2	134	135
2	136	137
2	138	139
2	140	141
2	142	143
2	144	145
2	146	147
2	148	149
2	150	151
2	152	153
2	154	155
2	156	157
2	158	159
2	160	161
2	162	163
2	164	165
2	166	167
2	168	169
2	170	171
2	172	173
2	174	175
2	176	177
2	178	179
2	180	181
2	182	183
2	184	185
2	186	187
2	188	189
2	190	191
2	192	193
2	194	195
2	196	197
2	198	199

CELL_TYPES 100
 3 3 3 3 3 3 3 3 3 3 3 3 3 3 3 3 3 3 3 3 3 3 3 3 3 3 3 3 3 3 3 3 3 3 3 3 3 3 3 3 3 3 3 3 3 3 3 3 3 3 3 3 3 3 3 3 3 3 3 3 3 3 3 3 3 3 3 3 3 3 3 3 3 3 3 3 3 3 3 3 3 3 3 3 3 3 3 3 3 3 3 3 3 3 3 3 3 3 3 3
POINT_DATA 200
VECTORS u double
0 0 0
1.16665e-05 0 0
1.16665e-05 0 0
2.3332e-05 0 0
2.3332e-05 0 0
3.49955e-05 0 0
3.49955e-05 0 0
4.6656e-05 0 0
4.6656e-05 0 0
5.83125e-05 0 0
5.83125e-05 0 0
6.9964e-05 0 0
6.9964e-05 0 0
8.16095e-05 0 0
8.16095e-05 0 0
9.3248e-05 0 0
9.3248e-05 0 0
0.000104878 0 0
0.000104878 0 0
0.0001165 0 0
0.0001165 0 0
0.000128111 0 0
0.000128111 0 0
0.000139712 0 0
0.000139712 0 0
0.0001513 0 0
0.0001513 0 0
0.000162876 0 0
0.000162876 0 0
0.000174438 0 0
0.000174438 0 0
0.000185984 0 0
0.000185984 0 0
0.000197514 0 0
0.000197514 0 0
0.000209028 0 0
0.000209028 0 0
0.000220524 0 0
0.000220524 0 0
0.000232 0 0
0.000232 0 0
0.000243456 0 0
0.000243456 0 0
0.000254892 0 0
0.000254892 0 0
0.000266305 0 0
0.000266305 0 0
0.000277696 0 0
0.000277696 0 0
0.000289063 0 0
0.000289063 0 0
0.000300404 0 0
0.000300404 0 0
0.000311719 0 0
0.000311719 0 0
0.000323008 0 0
0.000323008 0 0
0.000334268 0 0
0.000334268 0 0
0.0003455 0 0
0.0003455 0 0
0.000356701 0 0
0.000356701 0 0
0.000367872 0 0
0.000367872 0 0
0.000379011 0 0
0.000379011 0 0
0.000390116 0 0
0.000390116 0 0
0.000401188 0 0
0.000401188 0 0
0.000412224 0 0
0.000412224 0 0
0.000423224 0 0
0.000423224 0 0
0.000434188 0 0
0.000434188 0 0
0.000445113 0 0
0.000445113 0 0
0.000456 0 0
0.000456 0 0
0.000466847 0 0
0.000466847 0 0
0.000477652 0 0
0.000477652 0 0
0.000488415 0 0
0.000488415 0 0
0.000499136 0 0
0.000499136 0 0
0.000509812 0 0
0.000509812 0 0
0.000520444 0 0
0.000520444 0 0
0.000531029 0 0
0.000531029 0 0
0.000541568 0 0
0.000541568 0 0
0.000552059 0 0
0.000552059 0 0
0.0005625 0 0
0.0005625 0 0
0.000572891 0 0
0.000572891 0 0
0.000583232 0 0
0.000583232 0 0
0.000593521 0 0
0.000593521 0 0
0.000603756 0 0
0.000603756 0 0
0.000613938 0 0
0.000613938 0 0
0.000624064 0 0
0.000624064 0 0
0.000634135 0 0
0.000634135 0 0
0.000644148 0 0
0.000644148 0 0
0.000654104 0 0
0.000654104 0 0
0.000664 0 0
0.000664 0 0
0.000673837 0 0
0.000673837 0 0
0.000683612 0 0
0.000683612 0 0
0.000693325 0 0
0.000693325 0 0
0.000702976 0 0
0.000702976 0 0
0.000712563 0 0
0.000712563 0 0
0.000722084 0 0
0.000722084 0 0
0.00073154 0 0
0.00073154 0 0
0.000740928 0 0
0.000740928 0 0
0.000750248 0 0
0.000750248 0 0
0.0007595 0 0
0.0007595 0 0
0.000768682 0 0
0.000768682 0 0
0.000777792 0 0
0.000777792 0 0
0.00078683 0 0
0.00078683 0 0
0.000795796 0 0
0.000795796 0 0
0.000804688 0 0
0.000804688 0 0
0.000813504 0 0
0.000813504 0 0
0.000822245 0 0
0.000822245 0 0
0.000830908 0 0
0.000830908 0 0
0.000839494 0 0
0.000839494 0 0
0.000848 0 0
0.000848 0 0
0.000856426 0 0
0.000856426 0 0
0.000864772 0 0
0.000864772 0 0
0.000873036 0 0
0.000873036 0 0
0.000881216 0 0
0.000881216 0 0
0.000889312 0 0
0.000889312 0 0
0.000897324 0 0
0.000897324 0 0
0.00090525 0 0
0.00090525 0 0
0.000913088 0 0
0.000913088 0 0
0.000920839 0 0
0.000920839 0 0
0.0009285 0 0
0.0009285 0 0
0.000936072 0 0
0.000936072 0 0
0.000943552 0 0
0.000943552 0 0
0.00095094 0 0
0.00095094 0 0
0.000958236 0 0
0.000958236 0 0
0.000965438 0 0
0.000965438 0 0
0.000972544 0 0
0.000972544 0 0
0.000979554 0 0
0.000979554 0 0
0.000986468 0 0
0.000986468 0 0
0.000993283 0 0
0.000993283 0 0
0.001 0 0
